n -t * -s 0  -x 200 -y 100 -Z 0 -z 30  -v circle -c black
n -t * -s 1  -x 200 -y 300 -Z 0 -z 30  -v circle -c black
V -t * -v 1.0a5 -a 0
W -t * -x 500 -y 400
A -t * -n 1 -p 0 -o 0x7fffffff -c 30 -a 1
A -t * -h 1 -m 1073741823 -s 0
n -t 0.1 -s 0 -S COLOR -c blue -o black -i blue -I black
n -t 0.10000000000000001 -s 0 -S DLABEL -l "Node1" -L ""
n -t 0.10000000000000001 -s 1 -S DLABEL -l "Node2" -L ""
+ -t 1.000000000 -s 0 -d -1 -p tcp -e 40 -c 2 -a 0 -i 0 -k AGT 
- -t 1.000000000 -s 0 -d -1 -p tcp -e 40 -c 2 -a 0 -i 0 -k AGT
h -t 1.000000000 -s 0 -d -1 -p tcp -e 40 -c 2 -a 0 -i 0 -k AGT
+ -t 1.000000000 -s 0 -d -1 -p AODV -e 48 -c 2 -a 0 -i 0 -k RTR 
- -t 1.000000000 -s 0 -d -1 -p AODV -e 48 -c 2 -a 0 -i 0 -k RTR
h -t 1.000000000 -s 0 -d -1 -p AODV -e 48 -c 2 -a 0 -i 0 -k RTR
r -t 1.000988667 -s 1 -d -1 -p AODV -e 48 -c 2 -a 0 -i 0 -k RTR
+ -t 1.000988667 -s 1 -d 0 -p AODV -e 44 -c 2 -a 0 -i 0 -k RTR 
- -t 1.000988667 -s 1 -d 0 -p AODV -e 44 -c 2 -a 0 -i 0 -k RTR
h -t 1.000988667 -s 1 -d 0 -p AODV -e 44 -c 2 -a 0 -i 0 -k RTR
+ -t 1.005651333 -s 0 -d 1 -p tcp -e 40 -c 2 -a 0 -i 0 -k RTR 
- -t 1.005651333 -s 0 -d 1 -p tcp -e 40 -c 2 -a 0 -i 0 -k RTR
h -t 1.005651333 -s 0 -d 1 -p tcp -e 40 -c 2 -a 0 -i 0 -k RTR
r -t 1.007637333 -s 1 -d 1 -p tcp -e 40 -c 2 -a 0 -i 0 -k AGT
+ -t 1.007637333 -s 1 -d -1 -p ack -e 40 -c 2 -a 0 -i 1 -k AGT 
- -t 1.007637333 -s 1 -d -1 -p ack -e 40 -c 2 -a 0 -i 1 -k AGT
h -t 1.007637333 -s 1 -d -1 -p ack -e 40 -c 2 -a 0 -i 1 -k AGT
+ -t 1.007637333 -s 1 -d 0 -p ack -e 40 -c 2 -a 0 -i 1 -k RTR 
- -t 1.007637333 -s 1 -d 0 -p ack -e 40 -c 2 -a 0 -i 1 -k RTR
h -t 1.007637333 -s 1 -d 0 -p ack -e 40 -c 2 -a 0 -i 1 -k RTR
r -t 1.009523333 -s 0 -d 0 -p ack -e 40 -c 2 -a 0 -i 1 -k AGT
+ -t 1.009523333 -s 0 -d -1 -p tcp -e 1040 -c 2 -a 0 -i 2 -k AGT 
- -t 1.009523333 -s 0 -d -1 -p tcp -e 1040 -c 2 -a 0 -i 2 -k AGT
h -t 1.009523333 -s 0 -d -1 -p tcp -e 1040 -c 2 -a 0 -i 2 -k AGT
+ -t 1.009523333 -s 0 -d -1 -p tcp -e 1040 -c 2 -a 0 -i 3 -k AGT 
- -t 1.009523333 -s 0 -d -1 -p tcp -e 1040 -c 2 -a 0 -i 3 -k AGT
h -t 1.009523333 -s 0 -d -1 -p tcp -e 1040 -c 2 -a 0 -i 3 -k AGT
+ -t 1.009523333 -s 0 -d 1 -p tcp -e 1040 -c 2 -a 0 -i 2 -k RTR 
- -t 1.009523333 -s 0 -d 1 -p tcp -e 1040 -c 2 -a 0 -i 2 -k RTR
h -t 1.009523333 -s 0 -d 1 -p tcp -e 1040 -c 2 -a 0 -i 2 -k RTR
+ -t 1.009523333 -s 0 -d 1 -p tcp -e 1040 -c 2 -a 0 -i 3 -k RTR 
- -t 1.009523333 -s 0 -d 1 -p tcp -e 1040 -c 2 -a 0 -i 3 -k RTR
h -t 1.009523333 -s 0 -d 1 -p tcp -e 1040 -c 2 -a 0 -i 3 -k RTR
r -t 1.019549333 -s 1 -d 1 -p tcp -e 1040 -c 2 -a 0 -i 2 -k AGT
+ -t 1.019549333 -s 1 -d -1 -p ack -e 40 -c 2 -a 0 -i 4 -k AGT 
- -t 1.019549333 -s 1 -d -1 -p ack -e 40 -c 2 -a 0 -i 4 -k AGT
h -t 1.019549333 -s 1 -d -1 -p ack -e 40 -c 2 -a 0 -i 4 -k AGT
+ -t 1.019549333 -s 1 -d 0 -p ack -e 40 -c 2 -a 0 -i 4 -k RTR 
- -t 1.019549333 -s 1 -d 0 -p ack -e 40 -c 2 -a 0 -i 4 -k RTR
h -t 1.019549333 -s 1 -d 0 -p ack -e 40 -c 2 -a 0 -i 4 -k RTR
r -t 1.021555333 -s 0 -d 0 -p ack -e 40 -c 2 -a 0 -i 4 -k AGT
+ -t 1.021555333 -s 0 -d -1 -p tcp -e 1040 -c 2 -a 0 -i 5 -k AGT 
- -t 1.021555333 -s 0 -d -1 -p tcp -e 1040 -c 2 -a 0 -i 5 -k AGT
h -t 1.021555333 -s 0 -d -1 -p tcp -e 1040 -c 2 -a 0 -i 5 -k AGT
+ -t 1.021555333 -s 0 -d -1 -p tcp -e 1040 -c 2 -a 0 -i 6 -k AGT 
- -t 1.021555333 -s 0 -d -1 -p tcp -e 1040 -c 2 -a 0 -i 6 -k AGT
h -t 1.021555333 -s 0 -d -1 -p tcp -e 1040 -c 2 -a 0 -i 6 -k AGT
+ -t 1.021555333 -s 0 -d 1 -p tcp -e 1040 -c 2 -a 0 -i 5 -k RTR 
- -t 1.021555333 -s 0 -d 1 -p tcp -e 1040 -c 2 -a 0 -i 5 -k RTR
h -t 1.021555333 -s 0 -d 1 -p tcp -e 1040 -c 2 -a 0 -i 5 -k RTR
+ -t 1.021555333 -s 0 -d 1 -p tcp -e 1040 -c 2 -a 0 -i 6 -k RTR 
- -t 1.021555333 -s 0 -d 1 -p tcp -e 1040 -c 2 -a 0 -i 6 -k RTR
h -t 1.021555333 -s 0 -d 1 -p tcp -e 1040 -c 2 -a 0 -i 6 -k RTR
r -t 1.031481333 -s 1 -d 1 -p tcp -e 1040 -c 2 -a 0 -i 3 -k AGT
+ -t 1.031481333 -s 1 -d -1 -p ack -e 40 -c 2 -a 0 -i 7 -k AGT 
- -t 1.031481333 -s 1 -d -1 -p ack -e 40 -c 2 -a 0 -i 7 -k AGT
h -t 1.031481333 -s 1 -d -1 -p ack -e 40 -c 2 -a 0 -i 7 -k AGT
+ -t 1.031481333 -s 1 -d 0 -p ack -e 40 -c 2 -a 0 -i 7 -k RTR 
- -t 1.031481333 -s 1 -d 0 -p ack -e 40 -c 2 -a 0 -i 7 -k RTR
h -t 1.031481333 -s 1 -d 0 -p ack -e 40 -c 2 -a 0 -i 7 -k RTR
r -t 1.041348000 -s 1 -d 1 -p tcp -e 1040 -c 2 -a 0 -i 5 -k AGT
+ -t 1.041348000 -s 1 -d -1 -p ack -e 40 -c 2 -a 0 -i 8 -k AGT 
- -t 1.041348000 -s 1 -d -1 -p ack -e 40 -c 2 -a 0 -i 8 -k AGT
h -t 1.041348000 -s 1 -d -1 -p ack -e 40 -c 2 -a 0 -i 8 -k AGT
+ -t 1.041348000 -s 1 -d 0 -p ack -e 40 -c 2 -a 0 -i 8 -k RTR 
- -t 1.041348000 -s 1 -d 0 -p ack -e 40 -c 2 -a 0 -i 8 -k RTR
h -t 1.041348000 -s 1 -d 0 -p ack -e 40 -c 2 -a 0 -i 8 -k RTR
r -t 1.043294000 -s 0 -d 0 -p ack -e 40 -c 2 -a 0 -i 7 -k AGT
+ -t 1.043294000 -s 0 -d -1 -p tcp -e 1040 -c 2 -a 0 -i 9 -k AGT 
- -t 1.043294000 -s 0 -d -1 -p tcp -e 1040 -c 2 -a 0 -i 9 -k AGT
h -t 1.043294000 -s 0 -d -1 -p tcp -e 1040 -c 2 -a 0 -i 9 -k AGT
+ -t 1.043294000 -s 0 -d -1 -p tcp -e 1040 -c 2 -a 0 -i 10 -k AGT 
- -t 1.043294000 -s 0 -d -1 -p tcp -e 1040 -c 2 -a 0 -i 10 -k AGT
h -t 1.043294000 -s 0 -d -1 -p tcp -e 1040 -c 2 -a 0 -i 10 -k AGT
+ -t 1.043294000 -s 0 -d 1 -p tcp -e 1040 -c 2 -a 0 -i 9 -k RTR 
- -t 1.043294000 -s 0 -d 1 -p tcp -e 1040 -c 2 -a 0 -i 9 -k RTR
h -t 1.043294000 -s 0 -d 1 -p tcp -e 1040 -c 2 -a 0 -i 9 -k RTR
+ -t 1.043294000 -s 0 -d 1 -p tcp -e 1040 -c 2 -a 0 -i 10 -k RTR 
- -t 1.043294000 -s 0 -d 1 -p tcp -e 1040 -c 2 -a 0 -i 10 -k RTR
h -t 1.043294000 -s 0 -d 1 -p tcp -e 1040 -c 2 -a 0 -i 10 -k RTR
r -t 1.045280667 -s 0 -d 0 -p ack -e 40 -c 2 -a 0 -i 8 -k AGT
+ -t 1.045280667 -s 0 -d -1 -p tcp -e 1040 -c 2 -a 0 -i 11 -k AGT 
- -t 1.045280667 -s 0 -d -1 -p tcp -e 1040 -c 2 -a 0 -i 11 -k AGT
h -t 1.045280667 -s 0 -d -1 -p tcp -e 1040 -c 2 -a 0 -i 11 -k AGT
+ -t 1.045280667 -s 0 -d -1 -p tcp -e 1040 -c 2 -a 0 -i 12 -k AGT 
- -t 1.045280667 -s 0 -d -1 -p tcp -e 1040 -c 2 -a 0 -i 12 -k AGT
h -t 1.045280667 -s 0 -d -1 -p tcp -e 1040 -c 2 -a 0 -i 12 -k AGT
+ -t 1.045280667 -s 0 -d 1 -p tcp -e 1040 -c 2 -a 0 -i 11 -k RTR 
- -t 1.045280667 -s 0 -d 1 -p tcp -e 1040 -c 2 -a 0 -i 11 -k RTR
h -t 1.045280667 -s 0 -d 1 -p tcp -e 1040 -c 2 -a 0 -i 11 -k RTR
+ -t 1.045280667 -s 0 -d 1 -p tcp -e 1040 -c 2 -a 0 -i 12 -k RTR 
- -t 1.045280667 -s 0 -d 1 -p tcp -e 1040 -c 2 -a 0 -i 12 -k RTR
h -t 1.045280667 -s 0 -d 1 -p tcp -e 1040 -c 2 -a 0 -i 12 -k RTR
r -t 1.055386667 -s 1 -d 1 -p tcp -e 1040 -c 2 -a 0 -i 6 -k AGT
+ -t 1.055386667 -s 1 -d -1 -p ack -e 40 -c 2 -a 0 -i 13 -k AGT 
- -t 1.055386667 -s 1 -d -1 -p ack -e 40 -c 2 -a 0 -i 13 -k AGT
h -t 1.055386667 -s 1 -d -1 -p ack -e 40 -c 2 -a 0 -i 13 -k AGT
+ -t 1.055386667 -s 1 -d 0 -p ack -e 40 -c 2 -a 0 -i 13 -k RTR 
- -t 1.055386667 -s 1 -d 0 -p ack -e 40 -c 2 -a 0 -i 13 -k RTR
h -t 1.055386667 -s 1 -d 0 -p ack -e 40 -c 2 -a 0 -i 13 -k RTR
r -t 1.057312667 -s 0 -d 0 -p ack -e 40 -c 2 -a 0 -i 13 -k AGT
+ -t 1.057312667 -s 0 -d -1 -p tcp -e 1040 -c 2 -a 0 -i 14 -k AGT 
- -t 1.057312667 -s 0 -d -1 -p tcp -e 1040 -c 2 -a 0 -i 14 -k AGT
h -t 1.057312667 -s 0 -d -1 -p tcp -e 1040 -c 2 -a 0 -i 14 -k AGT
+ -t 1.057312667 -s 0 -d -1 -p tcp -e 1040 -c 2 -a 0 -i 15 -k AGT 
- -t 1.057312667 -s 0 -d -1 -p tcp -e 1040 -c 2 -a 0 -i 15 -k AGT
h -t 1.057312667 -s 0 -d -1 -p tcp -e 1040 -c 2 -a 0 -i 15 -k AGT
+ -t 1.057312667 -s 0 -d 1 -p tcp -e 1040 -c 2 -a 0 -i 14 -k RTR 
- -t 1.057312667 -s 0 -d 1 -p tcp -e 1040 -c 2 -a 0 -i 14 -k RTR
h -t 1.057312667 -s 0 -d 1 -p tcp -e 1040 -c 2 -a 0 -i 14 -k RTR
+ -t 1.057312667 -s 0 -d 1 -p tcp -e 1040 -c 2 -a 0 -i 15 -k RTR 
- -t 1.057312667 -s 0 -d 1 -p tcp -e 1040 -c 2 -a 0 -i 15 -k RTR
h -t 1.057312667 -s 0 -d 1 -p tcp -e 1040 -c 2 -a 0 -i 15 -k RTR
r -t 1.067298667 -s 1 -d 1 -p tcp -e 1040 -c 2 -a 0 -i 9 -k AGT
+ -t 1.067298667 -s 1 -d -1 -p ack -e 40 -c 2 -a 0 -i 16 -k AGT 
- -t 1.067298667 -s 1 -d -1 -p ack -e 40 -c 2 -a 0 -i 16 -k AGT
h -t 1.067298667 -s 1 -d -1 -p ack -e 40 -c 2 -a 0 -i 16 -k AGT
+ -t 1.067298667 -s 1 -d 0 -p ack -e 40 -c 2 -a 0 -i 16 -k RTR 
- -t 1.067298667 -s 1 -d 0 -p ack -e 40 -c 2 -a 0 -i 16 -k RTR
h -t 1.067298667 -s 1 -d 0 -p ack -e 40 -c 2 -a 0 -i 16 -k RTR
r -t 1.077465333 -s 1 -d 1 -p tcp -e 1040 -c 2 -a 0 -i 10 -k AGT
+ -t 1.077465333 -s 1 -d -1 -p ack -e 40 -c 2 -a 0 -i 17 -k AGT 
- -t 1.077465333 -s 1 -d -1 -p ack -e 40 -c 2 -a 0 -i 17 -k AGT
h -t 1.077465333 -s 1 -d -1 -p ack -e 40 -c 2 -a 0 -i 17 -k AGT
+ -t 1.077465333 -s 1 -d 0 -p ack -e 40 -c 2 -a 0 -i 17 -k RTR 
- -t 1.077465333 -s 1 -d 0 -p ack -e 40 -c 2 -a 0 -i 17 -k RTR
h -t 1.077465333 -s 1 -d 0 -p ack -e 40 -c 2 -a 0 -i 17 -k RTR
r -t 1.079431333 -s 0 -d 0 -p ack -e 40 -c 2 -a 0 -i 16 -k AGT
+ -t 1.079431333 -s 0 -d -1 -p tcp -e 1040 -c 2 -a 0 -i 18 -k AGT 
- -t 1.079431333 -s 0 -d -1 -p tcp -e 1040 -c 2 -a 0 -i 18 -k AGT
h -t 1.079431333 -s 0 -d -1 -p tcp -e 1040 -c 2 -a 0 -i 18 -k AGT
+ -t 1.079431333 -s 0 -d -1 -p tcp -e 1040 -c 2 -a 0 -i 19 -k AGT 
- -t 1.079431333 -s 0 -d -1 -p tcp -e 1040 -c 2 -a 0 -i 19 -k AGT
h -t 1.079431333 -s 0 -d -1 -p tcp -e 1040 -c 2 -a 0 -i 19 -k AGT
+ -t 1.079431333 -s 0 -d 1 -p tcp -e 1040 -c 2 -a 0 -i 18 -k RTR 
- -t 1.079431333 -s 0 -d 1 -p tcp -e 1040 -c 2 -a 0 -i 18 -k RTR
h -t 1.079431333 -s 0 -d 1 -p tcp -e 1040 -c 2 -a 0 -i 18 -k RTR
+ -t 1.079431333 -s 0 -d 1 -p tcp -e 1040 -c 2 -a 0 -i 19 -k RTR 
- -t 1.079431333 -s 0 -d 1 -p tcp -e 1040 -c 2 -a 0 -i 19 -k RTR
h -t 1.079431333 -s 0 -d 1 -p tcp -e 1040 -c 2 -a 0 -i 19 -k RTR
r -t 1.091164667 -s 1 -d 1 -p tcp -e 1040 -c 2 -a 0 -i 11 -k AGT
+ -t 1.091164667 -s 1 -d -1 -p ack -e 40 -c 2 -a 0 -i 20 -k AGT 
- -t 1.091164667 -s 1 -d -1 -p ack -e 40 -c 2 -a 0 -i 20 -k AGT
h -t 1.091164667 -s 1 -d -1 -p ack -e 40 -c 2 -a 0 -i 20 -k AGT
+ -t 1.091164667 -s 1 -d 0 -p ack -e 40 -c 2 -a 0 -i 20 -k RTR 
- -t 1.091164667 -s 1 -d 0 -p ack -e 40 -c 2 -a 0 -i 20 -k RTR
h -t 1.091164667 -s 1 -d 0 -p ack -e 40 -c 2 -a 0 -i 20 -k RTR
r -t 1.093070667 -s 0 -d 0 -p ack -e 40 -c 2 -a 0 -i 17 -k AGT
+ -t 1.093070667 -s 0 -d -1 -p tcp -e 1040 -c 2 -a 0 -i 21 -k AGT 
- -t 1.093070667 -s 0 -d -1 -p tcp -e 1040 -c 2 -a 0 -i 21 -k AGT
h -t 1.093070667 -s 0 -d -1 -p tcp -e 1040 -c 2 -a 0 -i 21 -k AGT
+ -t 1.093070667 -s 0 -d -1 -p tcp -e 1040 -c 2 -a 0 -i 22 -k AGT 
- -t 1.093070667 -s 0 -d -1 -p tcp -e 1040 -c 2 -a 0 -i 22 -k AGT
h -t 1.093070667 -s 0 -d -1 -p tcp -e 1040 -c 2 -a 0 -i 22 -k AGT
+ -t 1.093070667 -s 0 -d 1 -p tcp -e 1040 -c 2 -a 0 -i 21 -k RTR 
- -t 1.093070667 -s 0 -d 1 -p tcp -e 1040 -c 2 -a 0 -i 21 -k RTR
h -t 1.093070667 -s 0 -d 1 -p tcp -e 1040 -c 2 -a 0 -i 21 -k RTR
+ -t 1.093070667 -s 0 -d 1 -p tcp -e 1040 -c 2 -a 0 -i 22 -k RTR 
- -t 1.093070667 -s 0 -d 1 -p tcp -e 1040 -c 2 -a 0 -i 22 -k RTR
h -t 1.093070667 -s 0 -d 1 -p tcp -e 1040 -c 2 -a 0 -i 22 -k RTR
r -t 1.103076667 -s 1 -d 1 -p tcp -e 1040 -c 2 -a 0 -i 12 -k AGT
+ -t 1.103076667 -s 1 -d -1 -p ack -e 40 -c 2 -a 0 -i 23 -k AGT 
- -t 1.103076667 -s 1 -d -1 -p ack -e 40 -c 2 -a 0 -i 23 -k AGT
h -t 1.103076667 -s 1 -d -1 -p ack -e 40 -c 2 -a 0 -i 23 -k AGT
+ -t 1.103076667 -s 1 -d 0 -p ack -e 40 -c 2 -a 0 -i 23 -k RTR 
- -t 1.103076667 -s 1 -d 0 -p ack -e 40 -c 2 -a 0 -i 23 -k RTR
h -t 1.103076667 -s 1 -d 0 -p ack -e 40 -c 2 -a 0 -i 23 -k RTR
r -t 1.113083333 -s 1 -d 1 -p tcp -e 1040 -c 2 -a 0 -i 14 -k AGT
+ -t 1.113083333 -s 1 -d -1 -p ack -e 40 -c 2 -a 0 -i 24 -k AGT 
- -t 1.113083333 -s 1 -d -1 -p ack -e 40 -c 2 -a 0 -i 24 -k AGT
h -t 1.113083333 -s 1 -d -1 -p ack -e 40 -c 2 -a 0 -i 24 -k AGT
+ -t 1.113083333 -s 1 -d 0 -p ack -e 40 -c 2 -a 0 -i 24 -k RTR 
- -t 1.113083333 -s 1 -d 0 -p ack -e 40 -c 2 -a 0 -i 24 -k RTR
h -t 1.113083333 -s 1 -d 0 -p ack -e 40 -c 2 -a 0 -i 24 -k RTR
r -t 1.115009333 -s 0 -d 0 -p ack -e 40 -c 2 -a 0 -i 20 -k AGT
+ -t 1.115009333 -s 0 -d -1 -p tcp -e 1040 -c 2 -a 0 -i 25 -k AGT 
- -t 1.115009333 -s 0 -d -1 -p tcp -e 1040 -c 2 -a 0 -i 25 -k AGT
h -t 1.115009333 -s 0 -d -1 -p tcp -e 1040 -c 2 -a 0 -i 25 -k AGT
+ -t 1.115009333 -s 0 -d -1 -p tcp -e 1040 -c 2 -a 0 -i 26 -k AGT 
- -t 1.115009333 -s 0 -d -1 -p tcp -e 1040 -c 2 -a 0 -i 26 -k AGT
h -t 1.115009333 -s 0 -d -1 -p tcp -e 1040 -c 2 -a 0 -i 26 -k AGT
+ -t 1.115009333 -s 0 -d 1 -p tcp -e 1040 -c 2 -a 0 -i 25 -k RTR 
- -t 1.115009333 -s 0 -d 1 -p tcp -e 1040 -c 2 -a 0 -i 25 -k RTR
h -t 1.115009333 -s 0 -d 1 -p tcp -e 1040 -c 2 -a 0 -i 25 -k RTR
+ -t 1.115009333 -s 0 -d 1 -p tcp -e 1040 -c 2 -a 0 -i 26 -k RTR 
- -t 1.115009333 -s 0 -d 1 -p tcp -e 1040 -c 2 -a 0 -i 26 -k RTR
h -t 1.115009333 -s 0 -d 1 -p tcp -e 1040 -c 2 -a 0 -i 26 -k RTR
r -t 1.117236000 -s 0 -d 0 -p ack -e 40 -c 2 -a 0 -i 23 -k AGT
+ -t 1.117236000 -s 0 -d -1 -p tcp -e 1040 -c 2 -a 0 -i 27 -k AGT 
- -t 1.117236000 -s 0 -d -1 -p tcp -e 1040 -c 2 -a 0 -i 27 -k AGT
h -t 1.117236000 -s 0 -d -1 -p tcp -e 1040 -c 2 -a 0 -i 27 -k AGT
+ -t 1.117236000 -s 0 -d -1 -p tcp -e 1040 -c 2 -a 0 -i 28 -k AGT 
- -t 1.117236000 -s 0 -d -1 -p tcp -e 1040 -c 2 -a 0 -i 28 -k AGT
h -t 1.117236000 -s 0 -d -1 -p tcp -e 1040 -c 2 -a 0 -i 28 -k AGT
+ -t 1.117236000 -s 0 -d 1 -p tcp -e 1040 -c 2 -a 0 -i 27 -k RTR 
- -t 1.117236000 -s 0 -d 1 -p tcp -e 1040 -c 2 -a 0 -i 27 -k RTR
h -t 1.117236000 -s 0 -d 1 -p tcp -e 1040 -c 2 -a 0 -i 27 -k RTR
+ -t 1.117236000 -s 0 -d 1 -p tcp -e 1040 -c 2 -a 0 -i 28 -k RTR 
- -t 1.117236000 -s 0 -d 1 -p tcp -e 1040 -c 2 -a 0 -i 28 -k RTR
h -t 1.117236000 -s 0 -d 1 -p tcp -e 1040 -c 2 -a 0 -i 28 -k RTR
r -t 1.127162000 -s 1 -d 1 -p tcp -e 1040 -c 2 -a 0 -i 15 -k AGT
+ -t 1.127162000 -s 1 -d -1 -p ack -e 40 -c 2 -a 0 -i 29 -k AGT 
- -t 1.127162000 -s 1 -d -1 -p ack -e 40 -c 2 -a 0 -i 29 -k AGT
h -t 1.127162000 -s 1 -d -1 -p ack -e 40 -c 2 -a 0 -i 29 -k AGT
+ -t 1.127162000 -s 1 -d 0 -p ack -e 40 -c 2 -a 0 -i 29 -k RTR 
- -t 1.127162000 -s 1 -d 0 -p ack -e 40 -c 2 -a 0 -i 29 -k RTR
h -t 1.127162000 -s 1 -d 0 -p ack -e 40 -c 2 -a 0 -i 29 -k RTR
r -t 1.137348667 -s 1 -d 1 -p tcp -e 1040 -c 2 -a 0 -i 18 -k AGT
+ -t 1.137348667 -s 1 -d -1 -p ack -e 40 -c 2 -a 0 -i 30 -k AGT 
- -t 1.137348667 -s 1 -d -1 -p ack -e 40 -c 2 -a 0 -i 30 -k AGT
h -t 1.137348667 -s 1 -d -1 -p ack -e 40 -c 2 -a 0 -i 30 -k AGT
+ -t 1.137348667 -s 1 -d 0 -p ack -e 40 -c 2 -a 0 -i 30 -k RTR 
- -t 1.137348667 -s 1 -d 0 -p ack -e 40 -c 2 -a 0 -i 30 -k RTR
h -t 1.137348667 -s 1 -d 0 -p ack -e 40 -c 2 -a 0 -i 30 -k RTR
r -t 1.147215333 -s 1 -d 1 -p tcp -e 1040 -c 2 -a 0 -i 19 -k AGT
+ -t 1.147215333 -s 1 -d -1 -p ack -e 40 -c 2 -a 0 -i 31 -k AGT 
- -t 1.147215333 -s 1 -d -1 -p ack -e 40 -c 2 -a 0 -i 31 -k AGT
h -t 1.147215333 -s 1 -d -1 -p ack -e 40 -c 2 -a 0 -i 31 -k AGT
+ -t 1.147215333 -s 1 -d 0 -p ack -e 40 -c 2 -a 0 -i 31 -k RTR 
- -t 1.147215333 -s 1 -d 0 -p ack -e 40 -c 2 -a 0 -i 31 -k RTR
h -t 1.147215333 -s 1 -d 0 -p ack -e 40 -c 2 -a 0 -i 31 -k RTR
r -t 1.149101333 -s 0 -d 0 -p ack -e 40 -c 2 -a 0 -i 24 -k AGT
+ -t 1.149101333 -s 0 -d -1 -p tcp -e 1040 -c 2 -a 0 -i 32 -k AGT 
- -t 1.149101333 -s 0 -d -1 -p tcp -e 1040 -c 2 -a 0 -i 32 -k AGT
h -t 1.149101333 -s 0 -d -1 -p tcp -e 1040 -c 2 -a 0 -i 32 -k AGT
+ -t 1.149101333 -s 0 -d -1 -p tcp -e 1040 -c 2 -a 0 -i 33 -k AGT 
- -t 1.149101333 -s 0 -d -1 -p tcp -e 1040 -c 2 -a 0 -i 33 -k AGT
h -t 1.149101333 -s 0 -d -1 -p tcp -e 1040 -c 2 -a 0 -i 33 -k AGT
+ -t 1.149101333 -s 0 -d 1 -p tcp -e 1040 -c 2 -a 0 -i 32 -k RTR 
- -t 1.149101333 -s 0 -d 1 -p tcp -e 1040 -c 2 -a 0 -i 32 -k RTR
h -t 1.149101333 -s 0 -d 1 -p tcp -e 1040 -c 2 -a 0 -i 32 -k RTR
+ -t 1.149101333 -s 0 -d 1 -p tcp -e 1040 -c 2 -a 0 -i 33 -k RTR 
- -t 1.149101333 -s 0 -d 1 -p tcp -e 1040 -c 2 -a 0 -i 33 -k RTR
h -t 1.149101333 -s 0 -d 1 -p tcp -e 1040 -c 2 -a 0 -i 33 -k RTR
r -t 1.159187333 -s 1 -d 1 -p tcp -e 1040 -c 2 -a 0 -i 21 -k AGT
+ -t 1.159187333 -s 1 -d -1 -p ack -e 40 -c 2 -a 0 -i 34 -k AGT 
- -t 1.159187333 -s 1 -d -1 -p ack -e 40 -c 2 -a 0 -i 34 -k AGT
h -t 1.159187333 -s 1 -d -1 -p ack -e 40 -c 2 -a 0 -i 34 -k AGT
+ -t 1.159187333 -s 1 -d 0 -p ack -e 40 -c 2 -a 0 -i 34 -k RTR 
- -t 1.159187333 -s 1 -d 0 -p ack -e 40 -c 2 -a 0 -i 34 -k RTR
h -t 1.159187333 -s 1 -d 0 -p ack -e 40 -c 2 -a 0 -i 34 -k RTR
r -t 1.161133333 -s 0 -d 0 -p ack -e 40 -c 2 -a 0 -i 29 -k AGT
+ -t 1.161133333 -s 0 -d -1 -p tcp -e 1040 -c 2 -a 0 -i 35 -k AGT 
- -t 1.161133333 -s 0 -d -1 -p tcp -e 1040 -c 2 -a 0 -i 35 -k AGT
h -t 1.161133333 -s 0 -d -1 -p tcp -e 1040 -c 2 -a 0 -i 35 -k AGT
+ -t 1.161133333 -s 0 -d -1 -p tcp -e 1040 -c 2 -a 0 -i 36 -k AGT 
- -t 1.161133333 -s 0 -d -1 -p tcp -e 1040 -c 2 -a 0 -i 36 -k AGT
h -t 1.161133333 -s 0 -d -1 -p tcp -e 1040 -c 2 -a 0 -i 36 -k AGT
+ -t 1.161133333 -s 0 -d 1 -p tcp -e 1040 -c 2 -a 0 -i 35 -k RTR 
- -t 1.161133333 -s 0 -d 1 -p tcp -e 1040 -c 2 -a 0 -i 35 -k RTR
h -t 1.161133333 -s 0 -d 1 -p tcp -e 1040 -c 2 -a 0 -i 35 -k RTR
+ -t 1.161133333 -s 0 -d 1 -p tcp -e 1040 -c 2 -a 0 -i 36 -k RTR 
- -t 1.161133333 -s 0 -d 1 -p tcp -e 1040 -c 2 -a 0 -i 36 -k RTR
h -t 1.161133333 -s 0 -d 1 -p tcp -e 1040 -c 2 -a 0 -i 36 -k RTR
r -t 1.170999333 -s 1 -d 1 -p tcp -e 1040 -c 2 -a 0 -i 22 -k AGT
+ -t 1.170999333 -s 1 -d -1 -p ack -e 40 -c 2 -a 0 -i 37 -k AGT 
- -t 1.170999333 -s 1 -d -1 -p ack -e 40 -c 2 -a 0 -i 37 -k AGT
h -t 1.170999333 -s 1 -d -1 -p ack -e 40 -c 2 -a 0 -i 37 -k AGT
+ -t 1.170999333 -s 1 -d 0 -p ack -e 40 -c 2 -a 0 -i 37 -k RTR 
- -t 1.170999333 -s 1 -d 0 -p ack -e 40 -c 2 -a 0 -i 37 -k RTR
h -t 1.170999333 -s 1 -d 0 -p ack -e 40 -c 2 -a 0 -i 37 -k RTR
r -t 1.172885333 -s 0 -d 0 -p ack -e 40 -c 2 -a 0 -i 30 -k AGT
+ -t 1.172885333 -s 0 -d -1 -p tcp -e 1040 -c 2 -a 0 -i 38 -k AGT 
- -t 1.172885333 -s 0 -d -1 -p tcp -e 1040 -c 2 -a 0 -i 38 -k AGT
h -t 1.172885333 -s 0 -d -1 -p tcp -e 1040 -c 2 -a 0 -i 38 -k AGT
+ -t 1.172885333 -s 0 -d -1 -p tcp -e 1040 -c 2 -a 0 -i 39 -k AGT 
- -t 1.172885333 -s 0 -d -1 -p tcp -e 1040 -c 2 -a 0 -i 39 -k AGT
h -t 1.172885333 -s 0 -d -1 -p tcp -e 1040 -c 2 -a 0 -i 39 -k AGT
+ -t 1.172885333 -s 0 -d 1 -p tcp -e 1040 -c 2 -a 0 -i 38 -k RTR 
- -t 1.172885333 -s 0 -d 1 -p tcp -e 1040 -c 2 -a 0 -i 38 -k RTR
h -t 1.172885333 -s 0 -d 1 -p tcp -e 1040 -c 2 -a 0 -i 38 -k RTR
+ -t 1.172885333 -s 0 -d 1 -p tcp -e 1040 -c 2 -a 0 -i 39 -k RTR 
- -t 1.172885333 -s 0 -d 1 -p tcp -e 1040 -c 2 -a 0 -i 39 -k RTR
h -t 1.172885333 -s 0 -d 1 -p tcp -e 1040 -c 2 -a 0 -i 39 -k RTR
r -t 1.174912000 -s 0 -d 0 -p ack -e 40 -c 2 -a 0 -i 31 -k AGT
+ -t 1.174912000 -s 0 -d -1 -p tcp -e 1040 -c 2 -a 0 -i 40 -k AGT 
- -t 1.174912000 -s 0 -d -1 -p tcp -e 1040 -c 2 -a 0 -i 40 -k AGT
h -t 1.174912000 -s 0 -d -1 -p tcp -e 1040 -c 2 -a 0 -i 40 -k AGT
+ -t 1.174912000 -s 0 -d -1 -p tcp -e 1040 -c 2 -a 0 -i 41 -k AGT 
- -t 1.174912000 -s 0 -d -1 -p tcp -e 1040 -c 2 -a 0 -i 41 -k AGT
h -t 1.174912000 -s 0 -d -1 -p tcp -e 1040 -c 2 -a 0 -i 41 -k AGT
+ -t 1.174912000 -s 0 -d 1 -p tcp -e 1040 -c 2 -a 0 -i 40 -k RTR 
- -t 1.174912000 -s 0 -d 1 -p tcp -e 1040 -c 2 -a 0 -i 40 -k RTR
h -t 1.174912000 -s 0 -d 1 -p tcp -e 1040 -c 2 -a 0 -i 40 -k RTR
+ -t 1.174912000 -s 0 -d 1 -p tcp -e 1040 -c 2 -a 0 -i 41 -k RTR 
- -t 1.174912000 -s 0 -d 1 -p tcp -e 1040 -c 2 -a 0 -i 41 -k RTR
h -t 1.174912000 -s 0 -d 1 -p tcp -e 1040 -c 2 -a 0 -i 41 -k RTR
r -t 1.184778000 -s 1 -d 1 -p tcp -e 1040 -c 2 -a 0 -i 25 -k AGT
+ -t 1.184778000 -s 1 -d -1 -p ack -e 40 -c 2 -a 0 -i 42 -k AGT 
- -t 1.184778000 -s 1 -d -1 -p ack -e 40 -c 2 -a 0 -i 42 -k AGT
h -t 1.184778000 -s 1 -d -1 -p ack -e 40 -c 2 -a 0 -i 42 -k AGT
+ -t 1.184778000 -s 1 -d 0 -p ack -e 40 -c 2 -a 0 -i 42 -k RTR 
- -t 1.184778000 -s 1 -d 0 -p ack -e 40 -c 2 -a 0 -i 42 -k RTR
h -t 1.184778000 -s 1 -d 0 -p ack -e 40 -c 2 -a 0 -i 42 -k RTR
r -t 1.186684000 -s 0 -d 0 -p ack -e 40 -c 2 -a 0 -i 34 -k AGT
+ -t 1.186684000 -s 0 -d -1 -p tcp -e 1040 -c 2 -a 0 -i 43 -k AGT 
- -t 1.186684000 -s 0 -d -1 -p tcp -e 1040 -c 2 -a 0 -i 43 -k AGT
h -t 1.186684000 -s 0 -d -1 -p tcp -e 1040 -c 2 -a 0 -i 43 -k AGT
+ -t 1.186684000 -s 0 -d -1 -p tcp -e 1040 -c 2 -a 0 -i 44 -k AGT 
- -t 1.186684000 -s 0 -d -1 -p tcp -e 1040 -c 2 -a 0 -i 44 -k AGT
h -t 1.186684000 -s 0 -d -1 -p tcp -e 1040 -c 2 -a 0 -i 44 -k AGT
+ -t 1.186684000 -s 0 -d 1 -p tcp -e 1040 -c 2 -a 0 -i 43 -k RTR 
- -t 1.186684000 -s 0 -d 1 -p tcp -e 1040 -c 2 -a 0 -i 43 -k RTR
h -t 1.186684000 -s 0 -d 1 -p tcp -e 1040 -c 2 -a 0 -i 43 -k RTR
+ -t 1.186684000 -s 0 -d 1 -p tcp -e 1040 -c 2 -a 0 -i 44 -k RTR 
- -t 1.186684000 -s 0 -d 1 -p tcp -e 1040 -c 2 -a 0 -i 44 -k RTR
h -t 1.186684000 -s 0 -d 1 -p tcp -e 1040 -c 2 -a 0 -i 44 -k RTR
r -t 1.188730667 -s 0 -d 0 -p ack -e 40 -c 2 -a 0 -i 37 -k AGT
+ -t 1.188730667 -s 0 -d -1 -p tcp -e 1040 -c 2 -a 0 -i 45 -k AGT 
- -t 1.188730667 -s 0 -d -1 -p tcp -e 1040 -c 2 -a 0 -i 45 -k AGT
h -t 1.188730667 -s 0 -d -1 -p tcp -e 1040 -c 2 -a 0 -i 45 -k AGT
+ -t 1.188730667 -s 0 -d -1 -p tcp -e 1040 -c 2 -a 0 -i 46 -k AGT 
- -t 1.188730667 -s 0 -d -1 -p tcp -e 1040 -c 2 -a 0 -i 46 -k AGT
h -t 1.188730667 -s 0 -d -1 -p tcp -e 1040 -c 2 -a 0 -i 46 -k AGT
+ -t 1.188730667 -s 0 -d 1 -p tcp -e 1040 -c 2 -a 0 -i 45 -k RTR 
- -t 1.188730667 -s 0 -d 1 -p tcp -e 1040 -c 2 -a 0 -i 45 -k RTR
h -t 1.188730667 -s 0 -d 1 -p tcp -e 1040 -c 2 -a 0 -i 45 -k RTR
+ -t 1.188730667 -s 0 -d 1 -p tcp -e 1040 -c 2 -a 0 -i 46 -k RTR 
- -t 1.188730667 -s 0 -d 1 -p tcp -e 1040 -c 2 -a 0 -i 46 -k RTR
h -t 1.188730667 -s 0 -d 1 -p tcp -e 1040 -c 2 -a 0 -i 46 -k RTR
r -t 1.190757333 -s 0 -d 0 -p ack -e 40 -c 2 -a 0 -i 42 -k AGT
+ -t 1.190757333 -s 0 -d -1 -p tcp -e 1040 -c 2 -a 0 -i 47 -k AGT 
- -t 1.190757333 -s 0 -d -1 -p tcp -e 1040 -c 2 -a 0 -i 47 -k AGT
h -t 1.190757333 -s 0 -d -1 -p tcp -e 1040 -c 2 -a 0 -i 47 -k AGT
+ -t 1.190757333 -s 0 -d -1 -p tcp -e 1040 -c 2 -a 0 -i 48 -k AGT 
- -t 1.190757333 -s 0 -d -1 -p tcp -e 1040 -c 2 -a 0 -i 48 -k AGT
h -t 1.190757333 -s 0 -d -1 -p tcp -e 1040 -c 2 -a 0 -i 48 -k AGT
+ -t 1.190757333 -s 0 -d 1 -p tcp -e 1040 -c 2 -a 0 -i 47 -k RTR 
- -t 1.190757333 -s 0 -d 1 -p tcp -e 1040 -c 2 -a 0 -i 47 -k RTR
h -t 1.190757333 -s 0 -d 1 -p tcp -e 1040 -c 2 -a 0 -i 47 -k RTR
+ -t 1.190757333 -s 0 -d 1 -p tcp -e 1040 -c 2 -a 0 -i 48 -k RTR 
- -t 1.190757333 -s 0 -d 1 -p tcp -e 1040 -c 2 -a 0 -i 48 -k RTR
h -t 1.190757333 -s 0 -d 1 -p tcp -e 1040 -c 2 -a 0 -i 48 -k RTR
r -t 1.200623333 -s 1 -d 1 -p tcp -e 1040 -c 2 -a 0 -i 26 -k AGT
+ -t 1.200623333 -s 1 -d -1 -p ack -e 40 -c 2 -a 0 -i 49 -k AGT 
- -t 1.200623333 -s 1 -d -1 -p ack -e 40 -c 2 -a 0 -i 49 -k AGT
h -t 1.200623333 -s 1 -d -1 -p ack -e 40 -c 2 -a 0 -i 49 -k AGT
+ -t 1.200623333 -s 1 -d 0 -p ack -e 40 -c 2 -a 0 -i 49 -k RTR 
- -t 1.200623333 -s 1 -d 0 -p ack -e 40 -c 2 -a 0 -i 49 -k RTR
h -t 1.200623333 -s 1 -d 0 -p ack -e 40 -c 2 -a 0 -i 49 -k RTR
r -t 1.210510000 -s 1 -d 1 -p tcp -e 1040 -c 2 -a 0 -i 27 -k AGT
+ -t 1.210510000 -s 1 -d -1 -p ack -e 40 -c 2 -a 0 -i 50 -k AGT 
- -t 1.210510000 -s 1 -d -1 -p ack -e 40 -c 2 -a 0 -i 50 -k AGT
h -t 1.210510000 -s 1 -d -1 -p ack -e 40 -c 2 -a 0 -i 50 -k AGT
+ -t 1.210510000 -s 1 -d 0 -p ack -e 40 -c 2 -a 0 -i 50 -k RTR 
- -t 1.210510000 -s 1 -d 0 -p ack -e 40 -c 2 -a 0 -i 50 -k RTR
h -t 1.210510000 -s 1 -d 0 -p ack -e 40 -c 2 -a 0 -i 50 -k RTR
r -t 1.220456667 -s 1 -d 1 -p tcp -e 1040 -c 2 -a 0 -i 28 -k AGT
+ -t 1.220456667 -s 1 -d -1 -p ack -e 40 -c 2 -a 0 -i 51 -k AGT 
- -t 1.220456667 -s 1 -d -1 -p ack -e 40 -c 2 -a 0 -i 51 -k AGT
h -t 1.220456667 -s 1 -d -1 -p ack -e 40 -c 2 -a 0 -i 51 -k AGT
+ -t 1.220456667 -s 1 -d 0 -p ack -e 40 -c 2 -a 0 -i 51 -k RTR 
- -t 1.220456667 -s 1 -d 0 -p ack -e 40 -c 2 -a 0 -i 51 -k RTR
h -t 1.220456667 -s 1 -d 0 -p ack -e 40 -c 2 -a 0 -i 51 -k RTR
r -t 1.230623333 -s 1 -d 1 -p tcp -e 1040 -c 2 -a 0 -i 32 -k AGT
+ -t 1.230623333 -s 1 -d -1 -p ack -e 40 -c 2 -a 0 -i 52 -k AGT 
- -t 1.230623333 -s 1 -d -1 -p ack -e 40 -c 2 -a 0 -i 52 -k AGT
h -t 1.230623333 -s 1 -d -1 -p ack -e 40 -c 2 -a 0 -i 52 -k AGT
+ -t 1.230623333 -s 1 -d 0 -p ack -e 40 -c 2 -a 0 -i 52 -k RTR 
- -t 1.230623333 -s 1 -d 0 -p ack -e 40 -c 2 -a 0 -i 52 -k RTR
h -t 1.230623333 -s 1 -d 0 -p ack -e 40 -c 2 -a 0 -i 52 -k RTR
r -t 1.232489333 -s 0 -d 0 -p ack -e 40 -c 2 -a 0 -i 49 -k AGT
+ -t 1.232489333 -s 0 -d -1 -p tcp -e 1040 -c 2 -a 0 -i 53 -k AGT 
- -t 1.232489333 -s 0 -d -1 -p tcp -e 1040 -c 2 -a 0 -i 53 -k AGT
h -t 1.232489333 -s 0 -d -1 -p tcp -e 1040 -c 2 -a 0 -i 53 -k AGT
+ -t 1.232489333 -s 0 -d -1 -p tcp -e 1040 -c 2 -a 0 -i 54 -k AGT 
- -t 1.232489333 -s 0 -d -1 -p tcp -e 1040 -c 2 -a 0 -i 54 -k AGT
h -t 1.232489333 -s 0 -d -1 -p tcp -e 1040 -c 2 -a 0 -i 54 -k AGT
+ -t 1.232489333 -s 0 -d 1 -p tcp -e 1040 -c 2 -a 0 -i 53 -k RTR 
- -t 1.232489333 -s 0 -d 1 -p tcp -e 1040 -c 2 -a 0 -i 53 -k RTR
h -t 1.232489333 -s 0 -d 1 -p tcp -e 1040 -c 2 -a 0 -i 53 -k RTR
+ -t 1.232489333 -s 0 -d 1 -p tcp -e 1040 -c 2 -a 0 -i 54 -k RTR 
- -t 1.232489333 -s 0 -d 1 -p tcp -e 1040 -c 2 -a 0 -i 54 -k RTR
h -t 1.232489333 -s 0 -d 1 -p tcp -e 1040 -c 2 -a 0 -i 54 -k RTR
r -t 1.234596000 -s 0 -d 0 -p ack -e 40 -c 2 -a 0 -i 50 -k AGT
+ -t 1.234596000 -s 0 -d -1 -p tcp -e 1040 -c 2 -a 0 -i 55 -k AGT 
- -t 1.234596000 -s 0 -d -1 -p tcp -e 1040 -c 2 -a 0 -i 55 -k AGT
h -t 1.234596000 -s 0 -d -1 -p tcp -e 1040 -c 2 -a 0 -i 55 -k AGT
+ -t 1.234596000 -s 0 -d -1 -p tcp -e 1040 -c 2 -a 0 -i 56 -k AGT 
- -t 1.234596000 -s 0 -d -1 -p tcp -e 1040 -c 2 -a 0 -i 56 -k AGT
h -t 1.234596000 -s 0 -d -1 -p tcp -e 1040 -c 2 -a 0 -i 56 -k AGT
+ -t 1.234596000 -s 0 -d 1 -p tcp -e 1040 -c 2 -a 0 -i 55 -k RTR 
- -t 1.234596000 -s 0 -d 1 -p tcp -e 1040 -c 2 -a 0 -i 55 -k RTR
h -t 1.234596000 -s 0 -d 1 -p tcp -e 1040 -c 2 -a 0 -i 55 -k RTR
+ -t 1.234596000 -s 0 -d 1 -p tcp -e 1040 -c 2 -a 0 -i 56 -k RTR 
- -t 1.234596000 -s 0 -d 1 -p tcp -e 1040 -c 2 -a 0 -i 56 -k RTR
h -t 1.234596000 -s 0 -d 1 -p tcp -e 1040 -c 2 -a 0 -i 56 -k RTR
r -t 1.236602667 -s 0 -d 0 -p ack -e 40 -c 2 -a 0 -i 51 -k AGT
+ -t 1.236602667 -s 0 -d -1 -p tcp -e 1040 -c 2 -a 0 -i 57 -k AGT 
- -t 1.236602667 -s 0 -d -1 -p tcp -e 1040 -c 2 -a 0 -i 57 -k AGT
h -t 1.236602667 -s 0 -d -1 -p tcp -e 1040 -c 2 -a 0 -i 57 -k AGT
+ -t 1.236602667 -s 0 -d -1 -p tcp -e 1040 -c 2 -a 0 -i 58 -k AGT 
- -t 1.236602667 -s 0 -d -1 -p tcp -e 1040 -c 2 -a 0 -i 58 -k AGT
h -t 1.236602667 -s 0 -d -1 -p tcp -e 1040 -c 2 -a 0 -i 58 -k AGT
+ -t 1.236602667 -s 0 -d 1 -p tcp -e 1040 -c 2 -a 0 -i 57 -k RTR 
- -t 1.236602667 -s 0 -d 1 -p tcp -e 1040 -c 2 -a 0 -i 57 -k RTR
h -t 1.236602667 -s 0 -d 1 -p tcp -e 1040 -c 2 -a 0 -i 57 -k RTR
+ -t 1.236602667 -s 0 -d 1 -p tcp -e 1040 -c 2 -a 0 -i 58 -k RTR 
- -t 1.236602667 -s 0 -d 1 -p tcp -e 1040 -c 2 -a 0 -i 58 -k RTR
h -t 1.236602667 -s 0 -d 1 -p tcp -e 1040 -c 2 -a 0 -i 58 -k RTR
r -t 1.246448667 -s 1 -d 1 -p tcp -e 1040 -c 2 -a 0 -i 33 -k AGT
+ -t 1.246448667 -s 1 -d -1 -p ack -e 40 -c 2 -a 0 -i 59 -k AGT 
- -t 1.246448667 -s 1 -d -1 -p ack -e 40 -c 2 -a 0 -i 59 -k AGT
h -t 1.246448667 -s 1 -d -1 -p ack -e 40 -c 2 -a 0 -i 59 -k AGT
+ -t 1.246448667 -s 1 -d 0 -p ack -e 40 -c 2 -a 0 -i 59 -k RTR 
- -t 1.246448667 -s 1 -d 0 -p ack -e 40 -c 2 -a 0 -i 59 -k RTR
h -t 1.246448667 -s 1 -d 0 -p ack -e 40 -c 2 -a 0 -i 59 -k RTR
r -t 1.248554667 -s 0 -d 0 -p ack -e 40 -c 2 -a 0 -i 52 -k AGT
+ -t 1.248554667 -s 0 -d -1 -p tcp -e 1040 -c 2 -a 0 -i 60 -k AGT 
- -t 1.248554667 -s 0 -d -1 -p tcp -e 1040 -c 2 -a 0 -i 60 -k AGT
h -t 1.248554667 -s 0 -d -1 -p tcp -e 1040 -c 2 -a 0 -i 60 -k AGT
+ -t 1.248554667 -s 0 -d 1 -p tcp -e 1040 -c 2 -a 0 -i 60 -k RTR 
- -t 1.248554667 -s 0 -d 1 -p tcp -e 1040 -c 2 -a 0 -i 60 -k RTR
h -t 1.248554667 -s 0 -d 1 -p tcp -e 1040 -c 2 -a 0 -i 60 -k RTR
r -t 1.250381333 -s 0 -d 0 -p ack -e 40 -c 2 -a 0 -i 59 -k AGT
+ -t 1.250381333 -s 0 -d -1 -p tcp -e 1040 -c 2 -a 0 -i 61 -k AGT 
- -t 1.250381333 -s 0 -d -1 -p tcp -e 1040 -c 2 -a 0 -i 61 -k AGT
h -t 1.250381333 -s 0 -d -1 -p tcp -e 1040 -c 2 -a 0 -i 61 -k AGT
+ -t 1.250381333 -s 0 -d 1 -p tcp -e 1040 -c 2 -a 0 -i 61 -k RTR 
- -t 1.250381333 -s 0 -d 1 -p tcp -e 1040 -c 2 -a 0 -i 61 -k RTR
h -t 1.250381333 -s 0 -d 1 -p tcp -e 1040 -c 2 -a 0 -i 61 -k RTR
r -t 1.260427333 -s 1 -d 1 -p tcp -e 1040 -c 2 -a 0 -i 35 -k AGT
+ -t 1.260427333 -s 1 -d -1 -p ack -e 40 -c 2 -a 0 -i 62 -k AGT 
- -t 1.260427333 -s 1 -d -1 -p ack -e 40 -c 2 -a 0 -i 62 -k AGT
h -t 1.260427333 -s 1 -d -1 -p ack -e 40 -c 2 -a 0 -i 62 -k AGT
+ -t 1.260427333 -s 1 -d 0 -p ack -e 40 -c 2 -a 0 -i 62 -k RTR 
- -t 1.260427333 -s 1 -d 0 -p ack -e 40 -c 2 -a 0 -i 62 -k RTR
h -t 1.260427333 -s 1 -d 0 -p ack -e 40 -c 2 -a 0 -i 62 -k RTR
r -t 1.270414000 -s 1 -d 1 -p tcp -e 1040 -c 2 -a 0 -i 36 -k AGT
+ -t 1.270414000 -s 1 -d -1 -p ack -e 40 -c 2 -a 0 -i 63 -k AGT 
- -t 1.270414000 -s 1 -d -1 -p ack -e 40 -c 2 -a 0 -i 63 -k AGT
h -t 1.270414000 -s 1 -d -1 -p ack -e 40 -c 2 -a 0 -i 63 -k AGT
+ -t 1.270414000 -s 1 -d 0 -p ack -e 40 -c 2 -a 0 -i 63 -k RTR 
- -t 1.270414000 -s 1 -d 0 -p ack -e 40 -c 2 -a 0 -i 63 -k RTR
h -t 1.270414000 -s 1 -d 0 -p ack -e 40 -c 2 -a 0 -i 63 -k RTR
r -t 1.272400000 -s 0 -d 0 -p ack -e 40 -c 2 -a 0 -i 62 -k AGT
+ -t 1.272400000 -s 0 -d -1 -p tcp -e 1040 -c 2 -a 0 -i 64 -k AGT 
- -t 1.272400000 -s 0 -d -1 -p tcp -e 1040 -c 2 -a 0 -i 64 -k AGT
h -t 1.272400000 -s 0 -d -1 -p tcp -e 1040 -c 2 -a 0 -i 64 -k AGT
+ -t 1.272400000 -s 0 -d 1 -p tcp -e 1040 -c 2 -a 0 -i 64 -k RTR 
- -t 1.272400000 -s 0 -d 1 -p tcp -e 1040 -c 2 -a 0 -i 64 -k RTR
h -t 1.272400000 -s 0 -d 1 -p tcp -e 1040 -c 2 -a 0 -i 64 -k RTR
r -t 1.275172667 -s 0 -d 0 -p ack -e 40 -c 2 -a 0 -i 63 -k AGT
+ -t 1.275172667 -s 0 -d -1 -p tcp -e 1040 -c 2 -a 0 -i 65 -k AGT 
- -t 1.275172667 -s 0 -d -1 -p tcp -e 1040 -c 2 -a 0 -i 65 -k AGT
h -t 1.275172667 -s 0 -d -1 -p tcp -e 1040 -c 2 -a 0 -i 65 -k AGT
+ -t 1.275172667 -s 0 -d 1 -p tcp -e 1040 -c 2 -a 0 -i 65 -k RTR 
- -t 1.275172667 -s 0 -d 1 -p tcp -e 1040 -c 2 -a 0 -i 65 -k RTR
h -t 1.275172667 -s 0 -d 1 -p tcp -e 1040 -c 2 -a 0 -i 65 -k RTR
r -t 1.285298667 -s 1 -d 1 -p tcp -e 1040 -c 2 -a 0 -i 38 -k AGT
+ -t 1.285298667 -s 1 -d -1 -p ack -e 40 -c 2 -a 0 -i 66 -k AGT 
- -t 1.285298667 -s 1 -d -1 -p ack -e 40 -c 2 -a 0 -i 66 -k AGT
h -t 1.285298667 -s 1 -d -1 -p ack -e 40 -c 2 -a 0 -i 66 -k AGT
+ -t 1.285298667 -s 1 -d 0 -p ack -e 40 -c 2 -a 0 -i 66 -k RTR 
- -t 1.285298667 -s 1 -d 0 -p ack -e 40 -c 2 -a 0 -i 66 -k RTR
h -t 1.285298667 -s 1 -d 0 -p ack -e 40 -c 2 -a 0 -i 66 -k RTR